<?xml version="1.0" encoding="UTF-8"?>

<<<<<<< HEAD
<!-- generated on Monday 01 February 2021 01:29:15 PM IST by Eclipse SUMO GUI Version 1.8.0
=======
<!-- generated on Monday 01 February 2021 04:30:09 PM IST by Eclipse SUMO GUI Version 1.8.0
>>>>>>> 853de3515597c347954e8a3a22707a6254e0fd1f
<configuration xmlns:xsi="http://www.w3.org/2001/XMLSchema-instance" xsi:noNamespaceSchemaLocation="http://sumo.dlr.de/xsd/sumoConfiguration.xsd">

    <input>
        <net-file value="../../maps/asymmetric/complex_final.net.xml"/>
        <route-files value="../../maps/asymmetric/simulation.rou.xml"/>
    </input>

    <output>
        <netstate-dump value="../../maps/asymmetric/netdump.xml"/>
        <tripinfo-output value="../../maps/asymmetric/tripinfo.xml"/>
    </output>

    <processing>
        <collision.action value="none"/>
    </processing>

    <report>
        <duration-log.disable value="true"/>
        <no-step-log value="true"/>
    </report>

    <traci_server>
<<<<<<< HEAD
        <remote-port value="51665"/>
=======
        <remote-port value="51383"/>
>>>>>>> 853de3515597c347954e8a3a22707a6254e0fd1f
    </traci_server>

    <gui_only>
        <gui-settings-file value="../../maps/asymmetric/simulation.settings.xml"/>
    </gui_only>

</configuration>
-->

<tripinfos xmlns:xsi="http://www.w3.org/2001/XMLSchema-instance" xsi:noNamespaceSchemaLocation="http://sumo.dlr.de/xsd/tripinfo_file.xsd">
</tripinfos>
