<?xml version="1.0" encoding="UTF-8"?>

<<<<<<< HEAD
<!-- generated on Fri 25 Dec 2020 09:06:06 IST by Eclipse SUMO GUI Version 1.8.0
=======
<!-- generated on Sunday 27 December 2020 11:43:12 AM IST by Eclipse SUMO GUI Version 1.8.0
>>>>>>> 157d17148834272309eace5071e0ef2f1b37475e
<configuration xmlns:xsi="http://www.w3.org/2001/XMLSchema-instance" xsi:noNamespaceSchemaLocation="http://sumo.dlr.de/xsd/sumoConfiguration.xsd">

    <input>
        <net-file value="../../maps/grid_5_5_final.net.xml"/>
        <route-files value="../../maps/simulation.rou.xml"/>
    </input>

    <output>
        <netstate-dump value="../../maps/netdump.xml"/>
        <tripinfo-output value="../../maps/tripinfo.xml"/>
    </output>

    <processing>
        <collision.action value="none"/>
    </processing>

    <report>
        <duration-log.disable value="true"/>
        <no-step-log value="true"/>
    </report>

    <traci_server>
<<<<<<< HEAD
        <remote-port value="48751"/>
=======
        <remote-port value="47983"/>
>>>>>>> 157d17148834272309eace5071e0ef2f1b37475e
    </traci_server>

    <gui_only>
        <gui-settings-file value="../../maps/simulation.settings.xml"/>
    </gui_only>

</configuration>
-->

<tripinfos xmlns:xsi="http://www.w3.org/2001/XMLSchema-instance" xsi:noNamespaceSchemaLocation="http://sumo.dlr.de/xsd/tripinfo_file.xsd">
</tripinfos>
