<?xml version="1.0" encoding="UTF-8"?>

<!-- generated on Mon 15 Feb 2021 02:38:59 AM IST by Eclipse SUMO GUI Version 1.8.0
<configuration xmlns:xsi="http://www.w3.org/2001/XMLSchema-instance" xsi:noNamespaceSchemaLocation="http://sumo.dlr.de/xsd/sumoConfiguration.xsd">

    <input>
        <net-file value="../../maps/first.net.xml"/>
        <route-files value="../../maps/simulation.rou.xml"/>
    </input>

    <output>
        <netstate-dump value="../../maps/netdump.xml"/>
        <tripinfo-output value="../../maps/tripinfo.xml"/>
    </output>

    <processing>
        <collision.action value="none"/>
    </processing>

    <report>
        <duration-log.disable value="true"/>
        <no-step-log value="true"/>
    </report>

    <traci_server>
        <remote-port value="36043"/>
    </traci_server>

    <gui_only>
        <gui-settings-file value="../../maps/simulation.settings.xml"/>
    </gui_only>

</configuration>
-->

<tripinfos xmlns:xsi="http://www.w3.org/2001/XMLSchema-instance" xsi:noNamespaceSchemaLocation="http://sumo.dlr.de/xsd/tripinfo_file.xsd">
</tripinfos>
