<?xml version="1.0" encoding="UTF-8"?>

<<<<<<< HEAD
<!-- generated on Sunday 27 December 2020 12:48:37 PM IST by Eclipse SUMO GUI Version 1.8.0
=======
<!-- generated on Tuesday 29 December 2020 03:07:04 PM IST by Eclipse SUMO GUI Version 1.8.0
>>>>>>> 98f562cabbff82ae8773f6479c817cfe3abf354f
<configuration xmlns:xsi="http://www.w3.org/2001/XMLSchema-instance" xsi:noNamespaceSchemaLocation="http://sumo.dlr.de/xsd/sumoConfiguration.xsd">

    <input>
        <net-file value="../../maps/grid_5_5_final.net.xml"/>
        <route-files value="../../maps/simulation.rou.xml"/>
    </input>

    <output>
        <netstate-dump value="../../maps/netdump.xml"/>
        <tripinfo-output value="../../maps/tripinfo.xml"/>
    </output>

    <processing>
        <collision.action value="none"/>
    </processing>

    <report>
        <duration-log.disable value="true"/>
        <no-step-log value="true"/>
    </report>

    <traci_server>
<<<<<<< HEAD
        <remote-port value="57893"/>
=======
        <remote-port value="50163"/>
>>>>>>> 98f562cabbff82ae8773f6479c817cfe3abf354f
    </traci_server>

    <gui_only>
        <gui-settings-file value="../../maps/simulation.settings.xml"/>
    </gui_only>

</configuration>
-->

<tripinfos xmlns:xsi="http://www.w3.org/2001/XMLSchema-instance" xsi:noNamespaceSchemaLocation="http://sumo.dlr.de/xsd/tripinfo_file.xsd">
</tripinfos>
